<?xml version="1.0" encoding="UTF-8"?>

<!-- generated on 2026-01-03T20:57:57.818957+09:00 by Eclipse SUMO GUI 1.25.0
<sumoConfiguration xmlns:xsi="http://www.w3.org/2001/XMLSchema-instance" xsi:noNamespaceSchemaLocation="http://sumo.dlr.de/xsd/sumoConfiguration.xsd">

    <input>
        <net-file value="bus_with_tls.net.xml"/>
        <route-files value="bus_routes_fixed.rou.xml,D:\SUMO\Bus\traffic_seed42_low.rou.xml,D:\SUMO\Bus\passengers_seed42_high_fixed.rou.xml"/>
        <additional-files value="bus.add.xml"/>
    </input>

    <output>
        <tripinfo-output value="tripinfo.output.xml"/>
        <tripinfo-output.write-unfinished value="true"/>
        <stop-output value="stop.output.xml"/>
        <statistic-output value="statistics.output.xml"/>
    </output>

    <time>
        <begin value="0"/>
        <end value="3600"/>
    </time>

    <report>
        <verbose value="true"/>
        <log value="simulation.log.txt"/>
    </report>

    <taxi_device>
        <device.taxi.dispatch-algorithm value="traci"/>
        <device.taxi.dispatch-algorithm.output value="taxi_dispatch.output.xml"/>
    </taxi_device>

    <traci_server>
        <remote-port value="54443"/>
    </traci_server>

</sumoConfiguration>
-->

<tripinfos xmlns:xsi="http://www.w3.org/2001/XMLSchema-instance" xsi:noNamespaceSchemaLocation="http://sumo.dlr.de/xsd/tripinfo_file.xsd">
    <personinfo id="4" depart="77.00" type="DEFAULT_PEDTYPE" speedFactor="0.86" duration="86.00" waitingTime="0.00" timeLoss="8.51" traveltime="86.00">
        <stop duration="0.00" arrival="77.00" arrivalPos="37.12" actType="waiting"/>
        <walk depart="77.00" departPos="37.12" arrival="163.00" arrivalPos="42.15" duration="86.00" routeLength="92.22" timeLoss="8.51" maxSpeed="1.19" waitingTime="0.00"/>
    </personinfo>
    <tripinfo id="2" depart="182.00" departLane="D2D1_1" departPos="5.10" departSpeed="0.00" departDelay="0.00" arrival="217.00" arrivalLane="C0C1_2" arrivalPos="79.20" arrivalSpeed="13.81" duration="35.00" routeLength="371.98" waitingTime="0.00" waitingCount="0" stopTime="0.00" timeLoss="8.37" rerouteNo="0" devices="tripinfo_2" vType="DEFAULT_VEHTYPE" speedFactor="1.08" vaporized=""/>
    <personinfo id="2" depart="70.00" type="DEFAULT_PEDTYPE" speedFactor="0.89" duration="194.00" waitingTime="10.00" timeLoss="29.24" traveltime="194.00">
        <stop duration="0.00" arrival="70.00" arrivalPos="38.73" actType="waiting"/>
        <walk depart="70.00" departPos="38.73" arrival="264.00" arrivalPos="37.12" duration="194.00" routeLength="202.75" timeLoss="29.24" maxSpeed="1.23" waitingTime="10.00"/>
    </personinfo>
    <tripinfo id="1" depart="144.00" departLane="C3D3_1" departPos="5.10" departSpeed="0.00" departDelay="0.00" arrival="279.00" arrivalLane="C1D1_1" arrivalPos="79.20" arrivalSpeed="13.50" duration="135.00" routeLength="448.44" waitingTime="77.00" waitingCount="3" stopTime="0.00" timeLoss="100.36" rerouteNo="0" devices="tripinfo_1" vType="DEFAULT_VEHTYPE" speedFactor="1.01" vaporized=""/>
    <tripinfo id="0" depart="62.00" departLane="B1B2_1" departPos="5.10" departSpeed="0.00" departDelay="0.00" arrival="289.00" arrivalLane="A0A1_1" arrivalPos="81.20" arrivalSpeed="13.83" duration="227.00" routeLength="674.24" waitingTime="139.00" waitingCount="5" stopTime="0.00" timeLoss="178.55" rerouteNo="0" devices="tripinfo_0" vType="DEFAULT_VEHTYPE" speedFactor="1.06" vaporized=""/>
    <tripinfo id="3" depart="194.00" departLane="B1A1_1" departPos="5.10" departSpeed="0.00" departDelay="0.00" arrival="325.00" arrivalLane="B2C2_1" arrivalPos="79.20" arrivalSpeed="13.02" duration="131.00" routeLength="371.20" waitingTime="81.00" waitingCount="3" stopTime="0.00" timeLoss="103.52" rerouteNo="0" devices="tripinfo_3" vType="DEFAULT_VEHTYPE" speedFactor="1.03" vaporized=""/>
    <personinfo id="9" depart="241.00" type="DEFAULT_PEDTYPE" speedFactor="0.99" duration="110.00" waitingTime="0.00" timeLoss="10.95" traveltime="110.00">
        <stop duration="0.00" arrival="241.00" arrivalPos="6.82" actType="waiting"/>
        <walk depart="241.00" departPos="6.82" arrival="351.00" arrivalPos="40.70" duration="110.00" routeLength="136.37" timeLoss="10.95" maxSpeed="1.38" waitingTime="0.00"/>
    </personinfo>
    <tripinfo id="4" depart="338.00" departLane="B3A3_1" departPos="5.10" departSpeed="0.00" departDelay="0.00" arrival="426.00" arrivalLane="C1C0_2" arrivalPos="79.20" arrivalSpeed="10.74" duration="88.00" routeLength="549.89" waitingTime="22.00" waitingCount="1" stopTime="0.00" timeLoss="37.55" rerouteNo="0" devices="tripinfo_4" vType="DEFAULT_VEHTYPE" speedFactor="0.83" vaporized=""/>
    <tripinfo id="bus5.0" depart="200.00" departLane="D3C3_1" departPos="11.85" departSpeed="0.00" departDelay="0.00" arrival="460.00" arrivalLane="A1A0_1" arrivalPos="81.20" arrivalSpeed="2.94" duration="260.00" routeLength="533.14" waitingTime="36.00" waitingCount="2" stopTime="120.00" timeLoss="97.79" rerouteNo="0" devices="tripinfo_bus5.0" vType="bus" speedFactor="1.00" vaporized=""/>
    <tripinfo id="bus2.0" depart="225.00" departLane="A0A1_1" departPos="12.00" departSpeed="0.00" departDelay="25.00" arrival="483.00" arrivalLane="C3D3_1" arrivalPos="81.20" arrivalSpeed="2.49" duration="258.00" routeLength="543.31" waitingTime="16.00" waitingCount="4" stopTime="120.00" timeLoss="95.74" rerouteNo="0" devices="tripinfo_bus2.0 person_bus2.0" vType="bus" speedFactor="1.00" vaporized=""/>
    <tripinfo id="bus6.0" depart="200.00" departLane="D3D2_1" departPos="10.77" departSpeed="0.00" departDelay="0.00" arrival="483.00" arrivalLane="B0A0_1" arrivalPos="81.20" arrivalSpeed="2.38" duration="283.00" routeLength="544.54" waitingTime="42.00" waitingCount="5" stopTime="120.00" timeLoss="120.10" rerouteNo="0" devices="tripinfo_bus6.0" vType="bus" speedFactor="1.00" vaporized=""/>
    <personinfo id="8" depart="170.00" type="DEFAULT_PEDTYPE" speedFactor="1.12" duration="317.00" waitingTime="82.00" timeLoss="117.14" traveltime="240.00">
        <stop duration="0.00" arrival="170.00" arrivalPos="6.82" actType="waiting"/>
        <ride waitingTime="77.00" vehicle="bus1.0" depart="247.00" arrival="417.00" arrivalPos="46.51" duration="170.00" routeLength="311.70" timeLoss="105.33"/>
        <walk depart="417.00" departPos="46.51" arrival="487.00" arrivalPos="40.80" duration="70.00" routeLength="90.75" timeLoss="11.81" maxSpeed="1.56" waitingTime="5.00"/>
    </personinfo>
    <personinfo id="10" depart="246.00" type="DEFAULT_PEDTYPE" speedFactor="0.88" duration="245.00" waitingTime="0.00" timeLoss="25.61" traveltime="245.00">
        <stop duration="0.00" arrival="246.00" arrivalPos="38.80" actType="waiting"/>
        <walk depart="246.00" departPos="38.80" arrival="491.00" arrivalPos="40.51" duration="245.00" routeLength="267.66" timeLoss="25.61" maxSpeed="1.22" waitingTime="0.00"/>
    </personinfo>
    <tripinfo id="bus1.0" depart="226.00" departLane="A0B0_1" departPos="11.82" departSpeed="0.00" departDelay="26.00" arrival="532.00" arrivalLane="D2D3_1" arrivalPos="81.20" arrivalSpeed="2.02" duration="306.00" routeLength="533.17" waitingTime="63.00" waitingCount="5" stopTime="120.00" timeLoss="144.20" rerouteNo="0" devices="tripinfo_bus1.0 person_bus1.0" vType="bus" speedFactor="1.00" vaporized=""/>
    <personinfo id="11" depart="253.00" type="DEFAULT_PEDTYPE" speedFactor="0.94" duration="332.00" waitingTime="50.00" timeLoss="78.49" traveltime="332.00">
        <stop duration="0.00" arrival="253.00" arrivalPos="74.05" actType="waiting"/>
        <walk depart="253.00" departPos="74.05" arrival="585.00" arrivalPos="40.80" duration="332.00" routeLength="331.47" timeLoss="78.49" maxSpeed="1.31" waitingTime="50.00"/>
    </personinfo>
    <tripinfo id="5" depart="508.00" departLane="D1D0_1" departPos="5.10" departSpeed="0.00" departDelay="0.00" arrival="586.00" arrivalLane="A2A3_1" arrivalPos="81.20" arrivalSpeed="12.09" duration="78.00" routeLength="685.08" waitingTime="8.00" waitingCount="1" stopTime="0.00" timeLoss="22.64" rerouteNo="0" devices="tripinfo_5" vType="DEFAULT_VEHTYPE" speedFactor="0.93" vaporized=""/>
    <personinfo id="16" depart="452.00" type="DEFAULT_PEDTYPE" speedFactor="0.97" duration="150.00" waitingTime="0.00" timeLoss="15.32" traveltime="150.00">
        <stop duration="0.00" arrival="452.00" arrivalPos="37.95" actType="waiting"/>
        <walk depart="452.00" departPos="37.95" arrival="602.00" arrivalPos="40.70" duration="150.00" routeLength="182.38" timeLoss="15.32" maxSpeed="1.35" waitingTime="0.00"/>
    </personinfo>
    <personinfo id="20" depart="534.00" type="DEFAULT_PEDTYPE" speedFactor="0.95" duration="85.00" waitingTime="0.00" timeLoss="9.70" traveltime="85.00">
        <stop duration="0.00" arrival="534.00" arrivalPos="42.87" actType="waiting"/>
        <walk depart="534.00" departPos="42.87" arrival="619.00" arrivalPos="42.10" duration="85.00" routeLength="99.23" timeLoss="9.70" maxSpeed="1.32" waitingTime="0.00"/>
    </personinfo>
    <tripinfo id="bus1.1" depart="400.00" departLane="A0B0_1" departPos="11.82" departSpeed="0.00" departDelay="0.00" arrival="639.00" arrivalLane="D2D3_1" arrivalPos="81.20" arrivalSpeed="1.95" duration="239.00" routeLength="533.17" waitingTime="14.00" waitingCount="1" stopTime="120.00" timeLoss="77.05" rerouteNo="0" devices="tripinfo_bus1.1 person_bus1.1" vType="bus" speedFactor="1.00" vaporized=""/>
    <tripinfo id="bus5.1" depart="400.00" departLane="D3C3_1" departPos="11.85" departSpeed="0.00" departDelay="0.00" arrival="642.00" arrivalLane="A1A0_1" arrivalPos="81.20" arrivalSpeed="2.86" duration="242.00" routeLength="533.14" waitingTime="15.00" waitingCount="1" stopTime="120.00" timeLoss="80.27" rerouteNo="0" devices="tripinfo_bus5.1" vType="bus" speedFactor="1.00" vaporized=""/>
    <personinfo id="15" depart="430.00" type="DEFAULT_PEDTYPE" speedFactor="1.01" duration="215.00" waitingTime="42.00" timeLoss="61.61" traveltime="215.00">
        <stop duration="0.00" arrival="430.00" arrivalPos="35.61" actType="waiting"/>
        <walk depart="430.00" departPos="35.61" arrival="645.00" arrivalPos="42.87" duration="215.00" routeLength="215.22" timeLoss="61.61" maxSpeed="1.40" waitingTime="42.00"/>
    </personinfo>
    <personinfo id="13" depart="383.00" type="DEFAULT_PEDTYPE" speedFactor="1.16" duration="273.00" waitingTime="38.00" timeLoss="73.91" traveltime="235.00">
        <stop duration="0.00" arrival="383.00" arrivalPos="6.82" actType="waiting"/>
        <ride waitingTime="38.00" vehicle="bus1.1" depart="421.00" arrival="578.00" arrivalPos="44.72" duration="157.00" routeLength="408.46" timeLoss="64.97"/>
        <walk depart="578.00" departPos="44.72" arrival="656.00" arrivalPos="38.73" duration="78.00" routeLength="111.08" timeLoss="8.95" maxSpeed="1.61" waitingTime="0.00"/>
    </personinfo>
    <personinfo id="12" depart="315.00" type="DEFAULT_PEDTYPE" speedFactor="0.94" duration="341.00" waitingTime="77.00" timeLoss="75.71" traveltime="264.00">
        <stop duration="0.00" arrival="315.00" arrivalPos="72.58" actType="waiting"/>
        <walk depart="315.00" departPos="72.58" arrival="344.00" arrivalPos="6.82" duration="29.00" routeLength="33.49" timeLoss="3.24" maxSpeed="1.30" waitingTime="0.00"/>
        <ride waitingTime="77.00" vehicle="bus1.1" depart="421.00" arrival="578.00" arrivalPos="44.72" duration="157.00" routeLength="408.46" timeLoss="64.97"/>
        <walk depart="578.00" departPos="44.72" arrival="656.00" arrivalPos="37.12" duration="78.00" routeLength="91.67" timeLoss="7.50" maxSpeed="1.30" waitingTime="0.00"/>
    </personinfo>
    <tripinfo id="bus2.1" depart="400.00" departLane="A0A1_1" departPos="12.00" departSpeed="0.00" departDelay="0.00" arrival="657.00" arrivalLane="C3D3_1" arrivalPos="81.20" arrivalSpeed="3.04" duration="257.00" routeLength="543.31" waitingTime="22.00" waitingCount="5" stopTime="120.00" timeLoss="94.38" rerouteNo="0" devices="tripinfo_bus2.1" vType="bus" speedFactor="1.00" vaporized=""/>
    <tripinfo id="bus6.1" depart="400.00" departLane="D3D2_1" departPos="10.77" departSpeed="0.00" departDelay="0.00" arrival="661.00" arrivalLane="B0A0_1" arrivalPos="81.20" arrivalSpeed="2.03" duration="261.00" routeLength="544.54" waitingTime="20.00" waitingCount="3" stopTime="120.00" timeLoss="98.30" rerouteNo="0" devices="tripinfo_bus6.1" vType="bus" speedFactor="1.00" vaporized=""/>
    <personinfo id="22" depart="652.00" type="DEFAULT_PEDTYPE" speedFactor="0.93" duration="33.00" waitingTime="1.00" timeLoss="5.70" traveltime="33.00">
        <stop duration="0.00" arrival="652.00" arrivalPos="72.39" actType="waiting"/>
        <walk depart="652.00" departPos="72.39" arrival="685.00" arrivalPos="72.58" duration="33.00" routeLength="35.31" timeLoss="5.70" maxSpeed="1.29" waitingTime="1.00"/>
    </personinfo>
    <personinfo id="23" depart="669.00" type="DEFAULT_PEDTYPE" speedFactor="1.18" duration="51.00" waitingTime="0.00" timeLoss="5.78" traveltime="51.00">
        <stop duration="0.00" arrival="669.00" arrivalPos="37.86" actType="waiting"/>
        <walk depart="669.00" departPos="37.86" arrival="720.00" arrivalPos="7.17" duration="51.00" routeLength="74.03" timeLoss="5.78" maxSpeed="1.64" waitingTime="0.00"/>
    </personinfo>
    <personinfo id="14" depart="427.00" type="DEFAULT_PEDTYPE" speedFactor="1.02" duration="295.00" waitingTime="0.00" timeLoss="29.73" traveltime="295.00">
        <stop duration="0.00" arrival="427.00" arrivalPos="5.77" actType="waiting"/>
        <walk depart="427.00" departPos="5.77" arrival="722.00" arrivalPos="42.10" duration="295.00" routeLength="375.10" timeLoss="29.73" maxSpeed="1.41" waitingTime="0.00"/>
    </personinfo>
    <personinfo id="7" depart="136.00" type="DEFAULT_PEDTYPE" speedFactor="1.05" duration="587.00" waitingTime="418.00" timeLoss="57.88" traveltime="169.00">
        <stop duration="0.00" arrival="136.00" arrivalPos="40.80" actType="waiting"/>
        <ride waitingTime="257.00" vehicle="bus2.0" depart="393.00" arrival="461.00" arrivalPos="77.35" duration="68.00" routeLength="218.37" timeLoss="30.93"/>
        <ride waitingTime="116.00" vehicle="bus3" depart="577.00" arrival="588.00" arrivalPos="10.76" duration="11.00" routeLength="35.88" timeLoss="7.76"/>
        <ride waitingTime="45.00" vehicle="bus6.2" depart="633.00" arrival="655.00" arrivalPos="44.59" duration="22.00" routeLength="134.37" timeLoss="11.71"/>
        <walk depart="655.00" departPos="44.59" arrival="723.00" arrivalPos="40.63" duration="68.00" routeLength="88.02" timeLoss="7.47" maxSpeed="1.45" waitingTime="0.00"/>
    </personinfo>
    <personinfo id="19" depart="529.00" type="DEFAULT_PEDTYPE" speedFactor="0.92" duration="197.00" waitingTime="32.00" timeLoss="50.03" traveltime="197.00">
        <stop duration="0.00" arrival="529.00" arrivalPos="40.63" actType="waiting"/>
        <walk depart="529.00" departPos="40.63" arrival="726.00" arrivalPos="37.95" duration="197.00" routeLength="187.23" timeLoss="50.03" maxSpeed="1.27" waitingTime="32.00"/>
    </personinfo>
    <personinfo id="6" depart="114.00" type="DEFAULT_PEDTYPE" speedFactor="1.03" duration="641.00" waitingTime="225.00" timeLoss="176.76" traveltime="416.00">
        <stop duration="0.00" arrival="114.00" arrivalPos="72.58" actType="waiting"/>
        <walk depart="114.00" departPos="72.58" arrival="142.00" arrivalPos="6.82" duration="28.00" routeLength="33.49" timeLoss="4.51" maxSpeed="1.43" waitingTime="0.00"/>
        <ride waitingTime="79.00" vehicle="bus4" depart="221.00" arrival="468.00" arrivalPos="78.45" duration="247.00" routeLength="557.64" timeLoss="126.26"/>
        <ride waitingTime="20.00" vehicle="bus4" depart="488.00" arrival="495.00" arrivalPos="11.84" duration="7.00" routeLength="20.40" timeLoss="4.99"/>
        <ride waitingTime="126.00" vehicle="bus5.2" depart="621.00" arrival="755.00" arrivalPos="45.46" duration="134.00" routeLength="409.17" timeLoss="41.01"/>
    </personinfo>
    <personinfo id="25" depart="694.00" type="DEFAULT_PEDTYPE" speedFactor="1.01" duration="114.00" waitingTime="36.00" timeLoss="45.15" traveltime="114.00">
        <stop duration="0.00" arrival="694.00" arrivalPos="42.15" actType="waiting"/>
        <walk depart="694.00" departPos="42.15" arrival="808.00" arrivalPos="39.80" duration="114.00" routeLength="96.12" timeLoss="45.15" maxSpeed="1.40" waitingTime="36.00"/>
    </personinfo>
    <personinfo id="27" depart="759.00" type="DEFAULT_PEDTYPE" speedFactor="0.99" duration="51.00" waitingTime="20.00" timeLoss="13.46" traveltime="31.00">
        <stop duration="0.00" arrival="759.00" arrivalPos="39.74" actType="waiting"/>
        <ride waitingTime="20.00" vehicle="bus1.2" depart="779.00" arrival="800.00" arrivalPos="78.47" duration="21.00" routeLength="121.96" timeLoss="11.57"/>
        <walk depart="800.00" departPos="78.47" arrival="810.00" arrivalPos="6.85" duration="10.00" routeLength="11.21" timeLoss="1.89" maxSpeed="1.38" waitingTime="0.00"/>
    </personinfo>
    <personinfo id="17" depart="469.00" type="DEFAULT_PEDTYPE" speedFactor="0.83" duration="346.00" waitingTime="110.00" timeLoss="57.36" traveltime="246.00">
        <stop duration="0.00" arrival="469.00" arrivalPos="7.00" actType="waiting"/>
        <walk depart="469.00" departPos="7.00" arrival="521.00" arrivalPos="6.82" duration="52.00" routeLength="53.48" timeLoss="5.37" maxSpeed="1.15" waitingTime="0.00"/>
        <ride waitingTime="100.00" vehicle="bus1.2" depart="621.00" arrival="720.00" arrivalPos="46.52" duration="99.00" routeLength="311.71" timeLoss="34.18"/>
        <walk depart="720.00" departPos="46.52" arrival="815.00" arrivalPos="37.78" duration="95.00" routeLength="88.51" timeLoss="17.82" maxSpeed="1.15" waitingTime="10.00"/>
    </personinfo>
    <tripinfo id="bus5.2" depart="600.00" departLane="D3C3_1" departPos="11.85" departSpeed="0.00" departDelay="0.00" arrival="818.00" arrivalLane="A1A0_1" arrivalPos="81.20" arrivalSpeed="2.81" duration="218.00" routeLength="533.14" waitingTime="0.00" waitingCount="0" stopTime="120.00" timeLoss="55.23" rerouteNo="0" devices="tripinfo_bus5.2 person_bus5.2" vType="bus" speedFactor="1.00" vaporized=""/>
    <tripinfo id="bus1.2" depart="600.00" departLane="A0B0_1" departPos="11.82" departSpeed="0.00" departDelay="0.00" arrival="821.00" arrivalLane="D2D3_1" arrivalPos="81.20" arrivalSpeed="2.10" duration="221.00" routeLength="533.17" waitingTime="0.00" waitingCount="0" stopTime="120.00" timeLoss="58.89" rerouteNo="0" devices="tripinfo_bus1.2 person_bus1.2" vType="bus" speedFactor="1.00" vaporized=""/>
    <personinfo id="29" depart="777.00" type="DEFAULT_PEDTYPE" speedFactor="0.97" duration="61.00" waitingTime="0.00" timeLoss="6.23" traveltime="61.00">
        <stop duration="0.00" arrival="777.00" arrivalPos="7.17" actType="waiting"/>
        <walk depart="777.00" departPos="7.17" arrival="838.00" arrivalPos="37.86" duration="61.00" routeLength="74.03" timeLoss="6.23" maxSpeed="1.35" waitingTime="0.00"/>
    </personinfo>
    <tripinfo id="bus6.2" depart="612.00" departLane="D3D2_1" departPos="10.77" departSpeed="0.00" departDelay="12.00" arrival="840.00" arrivalLane="B0A0_1" arrivalPos="81.20" arrivalSpeed="2.76" duration="228.00" routeLength="544.54" waitingTime="2.00" waitingCount="1" stopTime="120.00" timeLoss="65.00" rerouteNo="0" devices="tripinfo_bus6.2 person_bus6.2" vType="bus" speedFactor="1.00" vaporized=""/>
    <tripinfo id="bus2.2" depart="600.00" departLane="A0A1_1" departPos="12.00" departSpeed="0.00" departDelay="0.00" arrival="843.00" arrivalLane="C3D3_1" arrivalPos="81.20" arrivalSpeed="2.45" duration="243.00" routeLength="543.31" waitingTime="4.00" waitingCount="3" stopTime="120.00" timeLoss="80.83" rerouteNo="0" devices="tripinfo_bus2.2" vType="bus" speedFactor="1.00" vaporized=""/>
    <personinfo id="18" depart="528.00" type="DEFAULT_PEDTYPE" speedFactor="0.87" duration="318.00" waitingTime="148.00" timeLoss="55.19" traveltime="171.00">
        <stop duration="0.00" arrival="528.00" arrivalPos="39.59" actType="waiting"/>
        <ride waitingTime="147.00" vehicle="bus6.2" depart="675.00" arrival="818.00" arrivalPos="77.58" duration="143.00" routeLength="406.56" timeLoss="50.70"/>
        <walk depart="818.00" departPos="77.58" arrival="846.00" arrivalPos="6.82" duration="28.00" routeLength="28.49" timeLoss="4.49" maxSpeed="1.21" waitingTime="1.00"/>
    </personinfo>
    <personinfo id="21" depart="555.00" type="DEFAULT_PEDTYPE" speedFactor="1.13" duration="312.00" waitingTime="79.00" timeLoss="48.14" traveltime="234.00">
        <stop duration="0.00" arrival="555.00" arrivalPos="5.77" actType="waiting"/>
        <ride waitingTime="78.00" vehicle="bus6.2" depart="633.00" arrival="732.00" arrivalPos="46.10" duration="99.00" routeLength="322.66" timeLoss="33.63"/>
        <walk depart="732.00" departPos="46.10" arrival="867.00" arrivalPos="43.25" duration="135.00" routeLength="189.40" timeLoss="14.51" maxSpeed="1.57" waitingTime="1.00"/>
    </personinfo>
    <personinfo id="5" depart="107.00" type="DEFAULT_PEDTYPE" speedFactor="1.09" duration="807.00" waitingTime="524.00" timeLoss="132.46" traveltime="283.00">
        <stop duration="0.00" arrival="107.00" arrivalPos="39.65" actType="waiting"/>
        <ride waitingTime="467.00" vehicle="bus4" depart="574.00" arrival="764.00" arrivalPos="11.81" duration="190.00" routeLength="443.23" timeLoss="76.82"/>
        <ride waitingTime="57.00" vehicle="bus1.3" depart="821.00" arrival="914.00" arrivalPos="42.95" duration="93.00" routeLength="219.91" timeLoss="55.64"/>
    </personinfo>
    <personinfo id="24" depart="677.00" type="DEFAULT_PEDTYPE" speedFactor="1.15" duration="237.00" waitingTime="102.00" timeLoss="96.62" traveltime="180.00">
        <stop duration="0.00" arrival="677.00" arrivalPos="38.88" actType="waiting"/>
        <walk depart="677.00" departPos="38.88" arrival="806.00" arrivalPos="43.69" duration="129.00" routeLength="121.88" timeLoss="52.98" maxSpeed="1.60" waitingTime="45.00"/>
        <ride waitingTime="57.00" vehicle="bus1.3" depart="863.00" arrival="914.00" arrivalPos="42.95" duration="51.00" routeLength="92.89" timeLoss="43.64"/>
    </personinfo>
    <personinfo id="32" depart="880.00" type="DEFAULT_PEDTYPE" speedFactor="0.90" duration="61.00" waitingTime="0.00" timeLoss="6.34" traveltime="61.00">
        <stop duration="0.00" arrival="880.00" arrivalPos="37.86" actType="waiting"/>
        <walk depart="880.00" departPos="37.86" arrival="941.00" arrivalPos="74.05" duration="61.00" routeLength="68.37" timeLoss="6.34" maxSpeed="1.25" waitingTime="0.00"/>
    </personinfo>
    <personinfo id="30" depart="837.00" type="DEFAULT_PEDTYPE" speedFactor="1.18" duration="159.00" waitingTime="22.00" timeLoss="37.98" traveltime="159.00">
        <stop duration="0.00" arrival="837.00" arrivalPos="37.67" actType="waiting"/>
        <walk depart="837.00" departPos="37.67" arrival="996.00" arrivalPos="38.73" duration="159.00" routeLength="198.30" timeLoss="37.98" maxSpeed="1.64" waitingTime="22.00"/>
    </personinfo>
    <tripinfo id="bus6.3" depart="800.00" departLane="D3D2_1" departPos="10.77" departSpeed="0.00" departDelay="0.00" arrival="1023.00" arrivalLane="B0A0_1" arrivalPos="81.20" arrivalSpeed="2.79" duration="223.00" routeLength="544.54" waitingTime="0.00" waitingCount="0" stopTime="120.00" timeLoss="59.84" rerouteNo="0" devices="tripinfo_bus6.3" vType="bus" speedFactor="1.00" vaporized=""/>
    <tripinfo id="6" depart="974.00" departLane="A0B0_1" departPos="5.10" departSpeed="0.00" departDelay="0.00" arrival="1045.00" arrivalLane="B1B0_1" arrivalPos="79.20" arrivalSpeed="11.19" duration="71.00" routeLength="440.79" waitingTime="13.00" waitingCount="2" stopTime="0.00" timeLoss="32.28" rerouteNo="0" devices="tripinfo_6" vType="DEFAULT_VEHTYPE" speedFactor="0.89" vaporized=""/>
    <tripinfo id="bus1.3" depart="800.00" departLane="A0B0_1" departPos="11.82" departSpeed="0.00" departDelay="0.00" arrival="1073.00" arrivalLane="D2D3_1" arrivalPos="81.20" arrivalSpeed="2.61" duration="273.00" routeLength="533.17" waitingTime="34.00" waitingCount="4" stopTime="120.00" timeLoss="110.89" rerouteNo="0" devices="tripinfo_bus1.3 person_bus1.3" vType="bus" speedFactor="1.00" vaporized=""/>
    <tripinfo id="bus2.3" depart="800.00" departLane="A0A1_1" departPos="12.00" departSpeed="0.00" departDelay="0.00" arrival="1073.00" arrivalLane="C3D3_1" arrivalPos="81.20" arrivalSpeed="2.95" duration="273.00" routeLength="543.31" waitingTime="46.00" waitingCount="1" stopTime="120.00" timeLoss="110.22" rerouteNo="0" devices="tripinfo_bus2.3" vType="bus" speedFactor="1.00" vaporized=""/>
    <tripinfo id="bus5.3" depart="800.00" departLane="D3C3_1" departPos="11.85" departSpeed="0.00" departDelay="0.00" arrival="1080.00" arrivalLane="A1A0_1" arrivalPos="81.20" arrivalSpeed="2.72" duration="280.00" routeLength="533.14" waitingTime="37.00" waitingCount="5" stopTime="120.00" timeLoss="118.14" rerouteNo="0" devices="tripinfo_bus5.3" vType="bus" speedFactor="1.00" vaporized=""/>
    <personinfo id="36" depart="957.00" type="DEFAULT_PEDTYPE" speedFactor="1.04" duration="129.00" waitingTime="0.00" timeLoss="12.38" traveltime="129.00">
        <stop duration="0.00" arrival="957.00" arrivalPos="38.88" actType="waiting"/>
        <walk depart="957.00" departPos="38.88" arrival="1086.00" arrivalPos="72.39" duration="129.00" routeLength="169.01" timeLoss="12.38" maxSpeed="1.45" waitingTime="0.00"/>
    </personinfo>
    <personinfo id="3" depart="70.00" type="DEFAULT_PEDTYPE" speedFactor="0.94" duration="1024.00" waitingTime="542.00" timeLoss="191.20" traveltime="482.00">
        <stop duration="0.00" arrival="70.00" arrivalPos="38.80" actType="waiting"/>
        <walk depart="70.00" departPos="38.80" arrival="144.00" arrivalPos="36.48" duration="74.00" routeLength="86.38" timeLoss="7.69" maxSpeed="1.30" waitingTime="0.00"/>
        <ride waitingTime="542.00" vehicle="bus4" depart="686.00" arrival="1094.00" arrivalPos="44.63" duration="408.00" routeLength="870.25" timeLoss="183.51"/>
    </personinfo>
    <personinfo id="1" depart="41.00" type="DEFAULT_PEDTYPE" speedFactor="1.05" duration="1053.00" waitingTime="870.00" timeLoss="66.43" traveltime="186.00">
        <stop duration="0.00" arrival="41.00" arrivalPos="38.46" actType="waiting"/>
        <walk depart="41.00" departPos="38.46" arrival="132.00" arrivalPos="39.74" duration="91.00" routeLength="113.91" timeLoss="12.58" maxSpeed="1.45" waitingTime="3.00"/>
        <ride waitingTime="350.00" vehicle="bus1.0" depart="482.00" arrival="511.00" arrivalPos="78.47" duration="29.00" routeLength="121.96" timeLoss="19.61"/>
        <ride waitingTime="517.00" vehicle="bus4" depart="1028.00" arrival="1094.00" arrivalPos="44.63" duration="66.00" routeLength="155.21" timeLoss="34.25"/>
    </personinfo>
    <personinfo id="28" depart="765.00" type="DEFAULT_PEDTYPE" speedFactor="1.02" duration="358.00" waitingTime="67.00" timeLoss="104.25" traveltime="336.00">
        <stop duration="0.00" arrival="765.00" arrivalPos="36.48" actType="waiting"/>
        <walk depart="765.00" departPos="36.48" arrival="912.00" arrivalPos="37.95" duration="147.00" routeLength="186.02" timeLoss="15.65" maxSpeed="1.42" waitingTime="0.00"/>
        <ride waitingTime="22.00" vehicle="bus1.3" depart="934.00" arrival="1005.00" arrivalPos="44.73" duration="71.00" routeLength="188.57" timeLoss="36.06"/>
        <walk depart="1005.00" departPos="44.73" arrival="1123.00" arrivalPos="40.63" duration="118.00" routeLength="92.71" timeLoss="52.54" maxSpeed="1.42" waitingTime="45.00"/>
    </personinfo>
    <personinfo id="35" depart="946.00" type="DEFAULT_PEDTYPE" speedFactor="1.04" duration="179.00" waitingTime="0.00" timeLoss="17.22" traveltime="179.00">
        <stop duration="0.00" arrival="946.00" arrivalPos="73.47" actType="waiting"/>
        <walk depart="946.00" departPos="73.47" arrival="1125.00" arrivalPos="43.25" duration="179.00" routeLength="233.19" timeLoss="17.22" maxSpeed="1.44" waitingTime="0.00"/>
    </personinfo>
    <personinfo id="44" depart="1142.00" type="DEFAULT_PEDTYPE" speedFactor="1.00" duration="65.00" waitingTime="0.00" timeLoss="6.42" traveltime="65.00">
        <stop duration="0.00" arrival="1142.00" arrivalPos="38.73" actType="waiting"/>
        <walk depart="1142.00" departPos="38.73" arrival="1207.00" arrivalPos="40.51" duration="65.00" routeLength="81.04" timeLoss="6.42" maxSpeed="1.38" waitingTime="0.00"/>
    </personinfo>
    <personinfo id="38" depart="1002.00" type="DEFAULT_PEDTYPE" speedFactor="1.00" duration="206.00" waitingTime="11.00" timeLoss="43.87" traveltime="195.00">
        <stop duration="0.00" arrival="1002.00" arrivalPos="6.82" actType="waiting"/>
        <walk depart="1002.00" departPos="6.82" arrival="1102.00" arrivalPos="43.69" duration="100.00" routeLength="122.93" timeLoss="11.26" maxSpeed="1.39" waitingTime="0.00"/>
        <ride waitingTime="11.00" vehicle="bus1.4" depart="1113.00" arrival="1208.00" arrivalPos="44.74" duration="95.00" routeLength="281.40" timeLoss="32.61"/>
    </personinfo>
    <personinfo id="26" depart="748.00" type="DEFAULT_PEDTYPE" speedFactor="1.17" duration="470.00" waitingTime="88.00" timeLoss="71.17" traveltime="382.00">
        <stop duration="0.00" arrival="748.00" arrivalPos="40.88" actType="waiting"/>
        <walk depart="748.00" departPos="40.88" arrival="933.00" arrivalPos="5.77" duration="185.00" routeLength="271.61" timeLoss="18.12" maxSpeed="1.63" waitingTime="0.00"/>
        <ride waitingTime="88.00" vehicle="bus6.4" depart="1021.00" arrival="1160.00" arrivalPos="40.60" duration="139.00" routeLength="405.39" timeLoss="46.77"/>
        <walk depart="1160.00" departPos="40.60" arrival="1218.00" arrivalPos="40.70" duration="58.00" routeLength="84.17" timeLoss="6.28" maxSpeed="1.63" waitingTime="0.00"/>
    </personinfo>
    <personinfo id="45" depart="1148.00" type="DEFAULT_PEDTYPE" speedFactor="0.90" duration="89.00" waitingTime="0.00" timeLoss="8.71" traveltime="89.00">